<?xml version="1.0" encoding="UTF-8"?>

<!-- generated on Sun Apr 30 18:24:55 2017 by SUMO gui Version 0.21.0
<?xml version="1.0" encoding="UTF-8"?>

<configuration xmlns:xsi="http://www.w3.org/2001/XMLSchema-instance" xsi:noNamespaceSchemaLocation="http://sumo-sim.org/xsd/sumo-gui.exeConfiguration.xsd">

    <input>
        <net-file value="test_scenario/test.net.xml"/>
        <route-files value="test_scenario/test.rou.xml"/>
    </input>

    <output>
        <summary-output value="test_scenario/test-summary.xml"/>
        <tripinfo-output value="test_scenario/test-tripinfo.xml"/>
        <vehroute-output value="test_scenario/test-route.rou.xml"/>
        <vehroute-output.last-route value="true"/>
        <vehroute-output.sorted value="true"/>
        <save-state.prefix value="test_scenario/state"/>
    </output>

    <time>
        <begin value="100"/>
        <end value="600"/>
        <step-length value="0.100000"/>
    </time>

    <processing>
        <ignore-junction-blocker value="20"/>
        <time-to-teleport value="600"/>
        <max-depart-delay value="600"/>
    </processing>

    <report>
        <verbose value="true"/>
    </report>

    <emissions>
        <phemlight-path value="test_scenario/./PHEMlight/"/>
        <device.emissions.probability value="1"/>
    </emissions>

</configuration>
-->

<routes xmlns:xsi="http://www.w3.org/2001/XMLSchema-instance" xsi:noNamespaceSchemaLocation="http://sumo-sim.org/xsd/routes_file.xsd">
    <vehicle id="200" type="HumanStandard" depart="100.00" arrival="415.30">
        <route edges="1/4to2/4 2/4to3/4 3/4to4/4 4/4to5/4 5/4to6/4 6/4to7/4 7/4to8/4 8/4to9/4 9/4to10/4 10/4to10/5 10/5to10/6 10/6to10/7 10/7to10/8 10/8to10/9 10/9to10/10 10/10to10/11"/>
    </vehicle>

    <vehicle id="201" type="HumanStandard" depart="100.50" arrival="249.70">
        <route edges="7/9to6/9 6/9to6/8 6/8to6/7 6/7to6/6 6/6to6/5 6/5to6/4 6/4to6/3 6/3to6/2 6/2to6/1 6/1to6/0"/>
    </vehicle>

    <vehicle id="202" type="HumanStandard" depart="101.00" arrival="433.20">
        <route edges="9/0to9/1 9/1to8/1 8/1to7/1 7/1to6/1 6/1to5/1 5/1to4/1 4/1to3/1 3/1to2/1 2/1to2/2 2/2to2/3 2/3to2/4 2/4to2/5 2/5to2/6 2/6to2/7 2/7to2/8 2/8to2/9 2/9to2/10"/>
    </vehicle>

    <vehicle id="203" type="HumanStandard" depart="101.50" arrival="410.20">
        <route edges="4/11to4/10 4/10to3/10 3/10to2/10 2/10to2/9 2/9to2/8 2/8to2/7 2/7to2/6 2/6to2/5 2/5to2/4 2/4to2/3 2/3to2/2 2/2to2/1 2/1to1/1 1/1to1/2"/>
    </vehicle>

    <vehicle id="204" type="HumanStandard" depart="102.00" arrival="431.80">
        <route edges="0/10to1/10 1/10to2/10 2/10to3/10 3/10to4/10 4/10to5/10 5/10to6/10 6/10to7/10 7/10to8/10 8/10to9/10 9/10to10/10 10/10to10/9 10/9to10/8 10/8to10/7 10/7to11/7"/>
    </vehicle>

    <vehicle id="205" type="HumanStandard" depart="102.50" arrival="347.60">
        <route edges="10/5to9/5 9/5to8/5 8/5to7/5 7/5to6/5 6/5to5/5 5/5to4/5 4/5to3/5 3/5to2/5 2/5to1/5 1/5to1/6 1/6to1/7 1/7to1/8 1/8to0/8"/>
    </vehicle>

    <vehicle id="206" type="HumanStandard" depart="103.00" arrival="341.40">
        <route edges="3/11to3/10 3/10to2/10 2/10to1/10 1/10to1/9 1/9to1/8 1/8to1/7 1/7to1/6 1/6to1/5 1/5to1/4 1/4to1/3 1/3to1/2"/>
    </vehicle>

    <vehicle id="207" type="HumanStandard" depart="103.50" arrival="422.20">
        <route edges="8/10to7/10 7/10to6/10 6/10to5/10 5/10to4/10 4/10to3/10 3/10to2/10 2/10to1/10 1/10to1/9 1/9to1/8 1/8to1/7 1/7to1/6 1/6to1/5 1/5to1/4 1/4to1/3 1/3to1/2 1/2to0/2"/>
    </vehicle>

    <vehicle id="208" type="HumanStandard" depart="104.00" arrival="355.80">
        <route edges="3/8to4/8 4/8to5/8 5/8to6/8 6/8to7/8 7/8to8/8 8/8to9/8 9/8to10/8 10/8to10/7 10/7to10/6 10/6to10/5 10/5to10/4 10/4to10/3 10/3to11/3"/>
    </vehicle>

    <vehicle id="209" type="HumanStandard" depart="104.50" arrival="346.90">
        <route edges="5/9to4/9 4/9to3/9 3/9to2/9 2/9to1/9 1/9to1/8 1/8to1/7 1/7to1/6 1/6to1/5 1/5to1/4 1/4to1/3 1/3to1/2 1/2to1/1 1/1to1/0"/>
    </vehicle>

    <vehicle id="210" type="HumanStandard" depart="105.00" arrival="326.70">
        <route edges="9/3to10/3 10/3to10/2 10/2to9/2 9/2to8/2 8/2to7/2 7/2to6/2 6/2to5/2 5/2to4/2 4/2to3/2 3/2to2/2 2/2to1/2 1/2to1/1 1/1to0/1"/>
    </vehicle>

    <vehicle id="211" type="HumanStandard" depart="105.50" arrival="415.50">
        <route edges="1/8to1/9 1/9to2/9 2/9to2/8 2/8to2/7 2/7to2/6 2/6to2/5 2/5to2/4 2/4to3/4 3/4to4/4 4/4to5/4 5/4to6/4 6/4to7/4 7/4to8/4 8/4to9/4 9/4to9/3"/>
    </vehicle>

    <vehicle id="212" type="HumanStandard" depart="106.00" arrival="294.70">
        <route edges="10/9to9/9 9/9to9/8 9/8to9/7 9/7to9/6 9/6to9/5 9/5to9/4 9/4to9/3 9/3to9/2 9/2to9/1 9/1to9/0"/>
    </vehicle>

    <vehicle id="213" type="HumanStandard" depart="106.50" arrival="369.10">
        <route edges="3/8to3/7 3/7to3/6 3/6to3/5 3/5to3/4 3/4to3/3 3/3to3/2 3/2to3/1 3/1to4/1 4/1to5/1 5/1to6/1 6/1to7/1 7/1to8/1 8/1to9/1 9/1to10/1"/>
    </vehicle>

    <vehicle id="214" type="HumanStandard" depart="107.00" arrival="327.30">
        <route edges="0/4to1/4 1/4to1/5 1/5to1/6 1/6to1/7 1/7to1/8 1/8to2/8 2/8to3/8 3/8to4/8 4/8to5/8 5/8to6/8 6/8to7/8 7/8to8/8 8/8to9/8 9/8to9/9"/>
    </vehicle>

    <vehicle id="215" type="HumanStandard" depart="107.50" arrival="335.40">
        <route edges="10/4to10/5 10/5to9/5 9/5to8/5 8/5to7/5 7/5to6/5 6/5to5/5 5/5to4/5 4/5to3/5 3/5to2/5 2/5to1/5 1/5to1/4 1/4to1/3 1/3to1/2"/>
    </vehicle>

    <vehicle id="216" type="HumanStandard" depart="108.00" arrival="317.80">
        <route edges="3/2to3/3 3/3to3/4 3/4to3/5 3/5to3/6 3/6to3/7 3/7to3/8 3/8to3/9 3/9to4/9 4/9to5/9 5/9to6/9 6/9to7/9 7/9to8/9 8/9to9/9"/>
    </vehicle>

    <vehicle id="217" type="HumanStandard" depart="108.50" arrival="287.10">
        <route edges="0/8to1/8 1/8to1/9 1/9to2/9 2/9to3/9 3/9to4/9 4/9to5/9 5/9to6/9 6/9to7/9 7/9to8/9 8/9to9/9"/>
    </vehicle>

    <vehicle id="218" type="HumanStandard" depart="109.00" arrival="325.00">
        <route edges="3/7to2/7 2/7to2/6 2/6to2/5 2/5to2/4 2/4to2/3 2/3to2/2 2/2to2/1 2/1to3/1 3/1to4/1 4/1to5/1 5/1to6/1 6/1to7/1 7/1to8/1 8/1to9/1 9/1to9/0"/>
    </vehicle>

    <vehicle id="219" type="HumanStandard" depart="109.50" arrival="407.80">
        <route edges="10/9to10/10 10/10to9/10 9/10to8/10 8/10to7/10 7/10to6/10 6/10to5/10 5/10to5/9 5/9to5/8 5/8to5/7 5/7to5/6 5/6to5/5 5/5to5/4 5/4to5/3 5/3to5/2 5/2to5/1 5/1to4/1 4/1to4/2"/>
    </vehicle>

    <vehicle id="220" type="HumanStandard" depart="110.00" arrival="340.60">
        <route edges="5/2to4/2 4/2to3/2 3/2to2/2 2/2to2/3 2/3to2/4 2/4to2/5 2/5to2/6 2/6to2/7 2/7to2/8 2/8to2/9 2/9to2/10 2/10to2/11"/>
    </vehicle>

    <vehicle id="221" type="HumanStandard" depart="110.50" arrival="324.60">
        <route edges="0/3to1/3 1/3to1/4 1/4to1/5 1/5to1/6 1/6to2/6 2/6to3/6 3/6to4/6 4/6to5/6 5/6to6/6 6/6to7/6 7/6to8/6 8/6to9/6 9/6to9/5"/>
    </vehicle>

    <vehicle id="222" type="HumanStandard" depart="111.00" arrival="356.00">
        <route edges="8/1to7/1 7/1to6/1 6/1to5/1 5/1to5/2 5/2to5/3 5/3to5/4 5/4to5/5 5/5to5/6 5/6to5/7 5/7to5/8 5/8to5/9 5/9to5/10 5/10to5/11"/>
    </vehicle>

    <vehicle id="223" type="HumanStandard" depart="111.50" arrival="414.60">
        <route edges="10/9to9/9 9/9to8/9 8/9to7/9 7/9to6/9 6/9to5/9 5/9to4/9 4/9to3/9 3/9to2/9 2/9to2/8 2/8to2/7 2/7to2/6 2/6to2/5 2/5to2/4 2/4to2/3 2/3to1/3"/>
    </vehicle>

    <vehicle id="224" type="HumanStandard" depart="112.00" arrival="424.10">
        <route edges="1/0to1/1 1/1to1/2 1/2to1/3 1/3to1/4 1/4to1/5 1/5to1/6 1/6to1/7 1/7to1/8 1/8to1/9 1/9to1/10 1/10to2/10 2/10to3/10 3/10to4/10 4/10to5/10 5/10to6/10 6/10to7/10 7/10to8/10 8/10to9/10 9/10to9/11"/>
    </vehicle>

    <vehicle id="225" type="HumanStandard" depart="112.50" arrival="504.60">
        <route edges="2/9to2/8 2/8to3/8 3/8to4/8 4/8to5/8 5/8to6/8 6/8to7/8 7/8to8/8 8/8to9/8 9/8to10/8 10/8to10/7 10/7to10/6 10/6to10/5 10/5to10/4 10/4to10/3 10/3to10/2 10/2to9/2"/>
    </vehicle>

    <vehicle id="226" type="HumanStandard" depart="113.00" arrival="369.60">
        <route edges="8/11to8/10 8/10to7/10 7/10to7/9 7/9to7/8 7/8to7/7 7/7to7/6 7/6to7/5 7/5to7/4 7/4to7/3 7/3to7/2 7/2to7/1 7/1to6/1 6/1to6/2"/>
    </vehicle>

    <vehicle id="227" type="HumanStandard" depart="113.50" arrival="432.00">
        <route edges="9/1to10/1 10/1to10/2 10/2to9/2 9/2to8/2 8/2to7/2 7/2to6/2 6/2to5/2 5/2to4/2 4/2to3/2 3/2to2/2 2/2to2/3 2/3to2/4 2/4to2/5 2/5to2/6 2/6to2/7 2/7to2/8 2/8to2/9 2/9to1/9"/>
    </vehicle>

    <vehicle id="228" type="HumanStandard" depart="114.00" arrival="328.50">
        <route edges="5/10to4/10 4/10to4/9 4/9to4/8 4/8to4/7 4/7to4/6 4/6to4/5 4/5to4/4 4/4to4/3 4/3to4/2 4/2to4/1 4/1to5/1 5/1to6/1 6/1to7/1 7/1to8/1 8/1to9/1 9/1to9/0"/>
    </vehicle>

    <vehicle id="229" type="HumanStandard" depart="114.50" arrival="504.90">
        <route edges="9/9to9/8 9/8to8/8 8/8to7/8 7/8to6/8 6/8to5/8 5/8to4/8 4/8to3/8 3/8to2/8 2/8to1/8 1/8to1/7 1/7to1/6 1/6to1/5 1/5to1/4 1/4to1/3 1/3to1/2 1/2to1/1"/>
    </vehicle>

    <vehicle id="230" type="HumanStandard" depart="115.00" arrival="422.10">
        <route edges="11/1to10/1 10/1to9/1 9/1to8/1 8/1to7/1 7/1to6/1 6/1to5/1 5/1to5/2 5/2to5/3 5/3to5/4 5/4to5/5 5/5to5/6 5/6to5/7 5/7to5/8 5/8to5/9"/>
    </vehicle>

    <vehicle id="231" type="HumanStandard" depart="115.50" arrival="317.80">
        <route edges="3/11to3/10 3/10to3/9 3/9to3/8 3/8to3/7 3/7to3/6 3/6to3/5 3/5to3/4 3/4to3/3 3/3to3/2 3/2to3/1 3/1to4/1 4/1to4/2"/>
    </vehicle>

    <vehicle id="232" type="HumanStandard" depart="116.00" arrival="415.00">
        <route edges="2/5to2/4 2/4to3/4 3/4to4/4 4/4to5/4 5/4to6/4 6/4to7/4 7/4to8/4 8/4to9/4 9/4to10/4 10/4to10/5 10/5to11/5"/>
    </vehicle>

    <vehicle id="233" type="HumanStandard" depart="116.50" arrival="349.10">
        <route edges="6/0to6/1 6/1to5/1 5/1to4/1 4/1to3/1 3/1to2/1 2/1to1/1 1/1to1/2 1/2to1/3 1/3to1/4 1/4to1/5 1/5to1/6 1/6to1/7 1/7to1/8 1/8to1/9 1/9to0/9"/>
    </vehicle>

    <vehicle id="234" type="HumanStandard" depart="117.00" arrival="452.80">
        <route edges="9/2to9/3 9/3to8/3 8/3to7/3 7/3to6/3 6/3to5/3 5/3to4/3 4/3to3/3 3/3to3/4 3/4to3/5 3/5to3/6 3/6to3/7 3/7to3/8 3/8to3/9 3/9to3/10 3/10to2/10"/>
    </vehicle>

    <vehicle id="235" type="HumanStandard" depart="117.50" arrival="280.00">
        <route edges="6/9to6/8 6/8to6/7 6/7to6/6 6/6to6/5 6/5to6/4 6/4to6/3 6/3to6/2 6/2to6/1 6/1to7/1 7/1to7/0"/>
    </vehicle>

    <vehicle id="236" type="HumanStandard" depart="118.00" arrival="407.80">
        <route edges="2/9to2/8 2/8to2/7 2/7to2/6 2/6to2/5 2/5to2/4 2/4to2/3 2/3to3/3 3/3to4/3 4/3to5/3 5/3to6/3 6/3to7/3 7/3to8/3 8/3to9/3 9/3to10/3 10/3to10/4"/>
    </vehicle>

    <vehicle id="237" type="HumanStandard" depart="118.50" arrival="553.40">
        <route edges="2/3to1/3 1/3to1/4 1/4to1/5 1/5to1/6 1/6to1/7 1/7to1/8 1/8to1/9 1/9to2/9 2/9to3/9 3/9to4/9 4/9to5/9 5/9to6/9 6/9to7/9 7/9to8/9 8/9to9/9 9/9to9/10 9/10to8/10"/>
    </vehicle>

    <vehicle id="238" type="HumanStandard" depart="119.00" arrival="543.40">
        <route edges="0/8to1/8 1/8to1/7 1/7to1/6 1/6to1/5 1/5to1/4 1/4to1/3 1/3to1/2 1/2to1/1 1/1to2/1 2/1to3/1 3/1to4/1 4/1to5/1 5/1to6/1 6/1to7/1 7/1to8/1 8/1to9/1 9/1to9/2"/>
    </vehicle>

    <vehicle id="239" type="HumanStandard" depart="119.50" arrival="452.80">
        <route edges="10/9to9/9 9/9to8/9 8/9to7/9 7/9to6/9 6/9to5/9 5/9to4/9 4/9to3/9 3/9to3/8 3/8to3/7 3/7to3/6 3/6to3/5 3/5to3/4 3/4to3/3 3/3to2/3"/>
    </vehicle>

    <vehicle id="240" type="HumanStandard" depart="120.00" arrival="271.00">
        <route edges="10/11to10/10 10/10to10/9 10/9to10/8 10/8to10/7 10/7to10/6 10/6to10/5 10/5to10/4 10/4to10/3 10/3to10/2 10/2to10/1 10/1to9/1 9/1to9/0"/>
    </vehicle>

    <vehicle id="241" type="HumanStandard" depart="120.50" arrival="500.20">
        <route edges="2/2to2/3 2/3to2/4 2/4to2/5 2/5to2/6 2/6to2/7 2/7to2/8 2/8to2/9 2/9to2/10 2/10to3/10 3/10to4/10 4/10to5/10 5/10to6/10 6/10to7/10 7/10to8/10 8/10to9/10 9/10to10/10 10/10to10/9"/>
    </vehicle>

    <vehicle id="242" type="HumanStandard" depart="121.00" arrival="332.10">
        <route edges="7/1to8/1 8/1to8/2 8/2to7/2 7/2to6/2 6/2to5/2 5/2to5/3 5/3to5/4 5/4to5/5 5/5to5/6 5/6to5/7 5/7to5/8 5/8to5/9 5/9to5/10"/>
    </vehicle>

    <vehicle id="243" type="HumanStandard" depart="121.50" arrival="409.10">
        <route edges="5/1to6/1 6/1to6/2 6/2to6/3 6/3to6/4 6/4to6/5 6/5to6/6 6/6to6/7 6/7to6/8 6/8to6/9 6/9to6/10 6/10to7/10 7/10to8/10 8/10to9/10 9/10to10/10 10/10to10/9"/>
    </vehicle>

    <vehicle id="244" type="HumanStandard" depart="122.00" arrival="415.00">
        <route edges="0/2to1/2 1/2to1/3 1/3to1/4 1/4to1/5 1/5to1/6 1/6to1/7 1/7to1/8 1/8to2/8 2/8to3/8 3/8to4/8 4/8to5/8 5/8to6/8 6/8to7/8 7/8to8/8 8/8to8/9 8/9to7/9"/>
    </vehicle>

    <vehicle id="245" type="HumanStandard" depart="122.50" arrival="425.30">
        <route edges="8/2to7/2 7/2to6/2 6/2to5/2 5/2to4/2 4/2to3/2 3/2to2/2 2/2to1/2 1/2to1/3 1/3to1/4 1/4to1/5 1/5to1/6 1/6to1/7 1/7to1/8 1/8to1/9 1/9to0/9"/>
    </vehicle>

    <vehicle id="246" type="HumanStandard" depart="123.00" arrival="452.80">
        <route edges="0/9to1/9 1/9to1/8 1/8to1/7 1/7to2/7 2/7to3/7 3/7to4/7 4/7to5/7 5/7to6/7 6/7to7/7 7/7to8/7 8/7to9/7 9/7to10/7"/>
    </vehicle>

    <vehicle id="247" type="HumanStandard" depart="123.50" arrival="439.80">
        <route edges="7/0to7/1 7/1to8/1 8/1to9/1 9/1to10/1 10/1to10/2 10/2to10/3 10/3to10/4 10/4to10/5 10/5to10/6 10/6to10/7 10/7to10/8 10/8to10/9 10/9to9/9"/>
    </vehicle>

    <vehicle id="248" type="HumanStandard" depart="124.00" arrival="362.80">
        <route edges="4/11to4/10 4/10to4/9 4/9to4/8 4/8to4/7 4/7to4/6 4/6to4/5 4/5to4/4 4/4to4/3 4/3to4/2 4/2to4/1 4/1to5/1 5/1to6/1 6/1to7/1 7/1to8/1 8/1to9/1 9/1to9/2"/>
    </vehicle>

    <vehicle id="249" type="HumanStandard" depart="124.50" arrival="417.10">
        <route edges="8/2to9/2 9/2to9/3 9/3to8/3 8/3to7/3 7/3to6/3 6/3to5/3 5/3to4/3 4/3to3/3 3/3to3/4 3/4to3/5 3/5to3/6 3/6to3/7 3/7to3/8 3/8to3/9 3/9to3/10"/>
    </vehicle>

    <vehicle id="250" type="HumanStandard" depart="125.00" arrival="422.10">
        <route edges="0/7to1/7 1/7to2/7 2/7to3/7 3/7to4/7 4/7to5/7 5/7to6/7 6/7to7/7 7/7to8/7 8/7to9/7 9/7to10/7 10/7to10/6 10/6to10/5 10/5to10/4"/>
    </vehicle>

    <vehicle id="251" type="HumanStandard" depart="125.50" arrival="504.90">
        <route edges="1/1to2/1 2/1to2/2 2/2to2/3 2/3to2/4 2/4to2/5 2/5to2/6 2/6to2/7 2/7to2/8 2/8to2/9 2/9to3/9 3/9to4/9 4/9to5/9 5/9to6/9 6/9to7/9 7/9to8/9 8/9to9/9 9/9to10/9"/>
    </vehicle>

    <vehicle id="252" type="HumanStandard" depart="126.00" arrival="348.40">
        <route edges="10/4to10/5 10/5to9/5 9/5to8/5 8/5to7/5 7/5to6/5 6/5to5/5 5/5to4/5 4/5to3/5 3/5to2/5 2/5to1/5 1/5to1/6 1/6to1/7 1/7to1/8 1/8to0/8"/>
    </vehicle>

    <vehicle id="253" type="HumanStandard" depart="126.50" arrival="426.00">
        <route edges="0/6to1/6 1/6to2/6 2/6to3/6 3/6to4/6 4/6to5/6 5/6to6/6 6/6to7/6 7/6to8/6 8/6to9/6 9/6to10/6 10/6to10/5 10/5to10/4 10/4to11/4"/>
    </vehicle>

    <vehicle id="254" type="HumanStandard" depart="127.00" arrival="436.50">
        <route edges="7/10to8/10 8/10to9/10 9/10to10/10 10/10to10/9 10/9to10/8 10/8to10/7 10/7to10/6 10/6to10/5 10/5to10/4 10/4to10/3 10/3to10/2 10/2to10/1 10/1to9/1"/>
    </vehicle>

    <vehicle id="255" type="HumanStandard" depart="127.50" arrival="340.60">
        <route edges="8/1to9/1 9/1to9/2 9/2to8/2 8/2to7/2 7/2to6/2 6/2to5/2 5/2to5/3 5/3to5/4 5/4to5/5 5/5to5/6 5/6to5/7 5/7to5/8 5/8to5/9 5/9to5/10 5/10to5/11"/>
    </vehicle>

    <vehicle id="256" type="HumanStandard" depart="128.00" arrival="426.50">
        <route edges="11/3to10/3 10/3to9/3 9/3to8/3 8/3to7/3 7/3to6/3 6/3to5/3 5/3to4/3 4/3to3/3 3/3to2/3 2/3to1/3 1/3to1/4 1/4to1/5 1/5to1/6"/>
    </vehicle>

    <vehicle id="257" type="HumanStandard" depart="128.50" arrival="409.10">
        <route edges="10/1to10/2 10/2to9/2 9/2to8/2 8/2to7/2 7/2to6/2 6/2to5/2 5/2to4/2 4/2to3/2 3/2to2/2 2/2to1/2 1/2to1/3 1/3to1/4 1/4to1/5 1/5to1/6 1/6to1/7"/>
    </vehicle>

    <vehicle id="258" type="HumanStandard" depart="129.00" arrival="519.50">
        <route edges="11/8to10/8 10/8to9/8 9/8to8/8 8/8to7/8 7/8to6/8 6/8to5/8 5/8to4/8 4/8to3/8 3/8to2/8 2/8to2/7 2/7to2/6 2/6to2/5 2/5to2/4 2/4to2/3"/>
    </vehicle>

    <vehicle id="259" type="HumanStandard" depart="129.50" arrival="387.50">
        <route edges="2/10to1/10 1/10to1/9 1/9to1/8 1/8to1/7 1/7to1/6 1/6to1/5 1/5to1/4 1/4to1/3 1/3to1/2 1/2to2/2 2/2to3/2 3/2to4/2 4/2to4/1"/>
    </vehicle>

    <vehicle id="261" type="HumanStandard" depart="130.50" arrival="459.60">
        <route edges="9/8to8/8 8/8to7/8 7/8to6/8 6/8to5/8 5/8to4/8 4/8to3/8 3/8to2/8 2/8to2/7 2/7to2/6 2/6to2/5 2/5to2/4 2/4to2/3 2/3to2/2 2/2to1/2 1/2to1/3"/>
    </vehicle>

    <vehicle id="262" type="HumanStandard" depart="131.00" arrival="377.80">
        <route edges="7/0to7/1 7/1to6/1 6/1to5/1 5/1to5/2 5/2to5/3 5/3to5/4 5/4to5/5 5/5to5/6 5/6to5/7 5/7to5/8 5/8to5/9 5/9to5/10 5/10to4/10"/>
    </vehicle>

    <vehicle id="263" type="HumanStandard" depart="131.50" arrival="362.70">
        <route edges="10/9to10/8 10/8to9/8 9/8to8/8 8/8to7/8 7/8to6/8 6/8to5/8 5/8to4/8 4/8to3/8 3/8to2/8 2/8to2/7 2/7to2/6 2/6to2/5 2/5to2/4 2/4to2/3 2/3to3/3"/>
    </vehicle>

    <vehicle id="260" type="HumanStandard" depart="132.00" arrival="339.30">
        <route edges="6/1to6/2 6/2to5/2 5/2to4/2 4/2to3/2 3/2to2/2 2/2to2/3 2/3to2/4 2/4to2/5 2/5to2/6 2/6to2/7 2/7to2/8 2/8to2/9 2/9to2/10"/>
    </vehicle>

    <vehicle id="264" type="HumanStandard" depart="132.00" arrival="415.80">
        <route edges="6/10to5/10 5/10to4/10 4/10to3/10 3/10to2/10 2/10to1/10 1/10to1/9 1/9to1/8 1/8to1/7 1/7to1/6 1/6to1/5 1/5to1/4 1/4to1/3 1/3to0/3"/>
    </vehicle>

    <vehicle id="265" type="HumanStandard" depart="132.50" arrival="396.20">
        <route edges="3/8to3/9 3/9to4/9 4/9to4/8 4/8to4/7 4/7to4/6 4/6to4/5 4/5to4/4 4/4to4/3 4/3to4/2 4/2to4/1 4/1to5/1 5/1to6/1 6/1to7/1 7/1to8/1 8/1to8/0"/>
    </vehicle>

    <vehicle id="266" type="HumanStandard" depart="133.00" arrival="459.60">
        <route edges="2/11to2/10 2/10to2/9 2/9to2/8 2/8to2/7 2/7to2/6 2/6to2/5 2/5to3/5 3/5to4/5 4/5to5/5 5/5to6/5 6/5to7/5 7/5to8/5 8/5to9/5 9/5to9/4 9/4to8/4"/>
    </vehicle>

    <vehicle id="267" type="HumanStandard" depart="133.50" arrival="428.20">
        <route edges="11/3to10/3 10/3to9/3 9/3to8/3 8/3to7/3 7/3to6/3 6/3to5/3 5/3to4/3 4/3to3/3 3/3to2/3 2/3to2/2 2/2to2/1"/>
    </vehicle>

    <vehicle id="268" type="HumanStandard" depart="134.00" arrival="459.90">
        <route edges="1/1to2/1 2/1to2/2 2/2to2/3 2/3to2/4 2/4to2/5 2/5to2/6 2/6to3/6 3/6to4/6 4/6to5/6 5/6to6/6 6/6to7/6 7/6to8/6 8/6to9/6"/>
    </vehicle>

    <vehicle id="269" type="HumanStandard" depart="134.50" arrival="463.20">
        <route edges="1/8to2/8 2/8to2/7 2/7to2/6 2/6to2/5 2/5to2/4 2/4to2/3 2/3to3/3 3/3to4/3 4/3to5/3 5/3to6/3 6/3to7/3 7/3to8/3 8/3to9/3 9/3to10/3 10/3to10/4"/>
    </vehicle>

    <vehicle id="270" type="HumanStandard" depart="135.00" arrival="419.00">
        <route edges="10/2to10/1 10/1to9/1 9/1to8/1 8/1to7/1 7/1to6/1 6/1to5/1 5/1to4/1 4/1to3/1 3/1to2/1 2/1to1/1 1/1to1/2 1/2to1/3 1/3to1/4 1/4to1/5 1/5to1/6 1/6to0/6"/>
    </vehicle>

    <vehicle id="271" type="HumanStandard" depart="135.50" arrival="350.60">
        <route edges="8/1to7/1 7/1to6/1 6/1to5/1 5/1to5/2 5/2to5/3 5/3to5/4 5/4to5/5 5/5to5/6 5/6to5/7 5/7to5/8 5/8to5/9 5/9to5/10"/>
    </vehicle>

    <vehicle id="272" type="HumanStandard" depart="136.00" arrival="500.20">
        <route edges="1/4to1/3 1/3to2/3 2/3to2/4 2/4to2/5 2/5to2/6 2/6to3/6 3/6to4/6 4/6to5/6 5/6to6/6 6/6to7/6 7/6to8/6 8/6to9/6 9/6to10/6 10/6to10/5"/>
    </vehicle>

    <vehicle id="273" type="HumanStandard" depart="136.50" arrival="384.30">
        <route edges="3/9to4/9 4/9to4/8 4/8to4/7 4/7to4/6 4/6to4/5 4/5to4/4 4/4to4/3 4/3to4/2 4/2to4/1 4/1to5/1 5/1to6/1 6/1to7/1 7/1to7/0"/>
    </vehicle>

    <vehicle id="274" type="HumanStandard" depart="137.00" arrival="320.30">
        <route edges="0/8to1/8 1/8to2/8 2/8to3/8 3/8to4/8 4/8to5/8 5/8to6/8 6/8to7/8 7/8to8/8 8/8to9/8"/>
    </vehicle>

    <vehicle id="275" type="HumanStandard" depart="137.50" arrival="519.70">
        <route edges="9/1to10/1 10/1to10/2 10/2to9/2 9/2to8/2 8/2to7/2 7/2to6/2 6/2to5/2 5/2to4/2 4/2to4/3 4/3to4/4 4/4to4/5 4/5to4/6 4/6to4/7 4/7to4/8 4/8to4/9 4/9to4/10 4/10to4/11"/>
    </vehicle>

    <vehicle id="276" type="HumanStandard" depart="138.00" arrival="353.80">
        <route edges="4/3to4/4 4/4to5/4 5/4to6/4 6/4to7/4 7/4to8/4 8/4to9/4 9/4to10/4 10/4to10/5 10/5to10/6 10/6to10/7 10/7to10/8 10/8to10/9 10/9to11/9"/>
    </vehicle>

    <vehicle id="277" type="HumanStandard" depart="138.50" arrival="505.00">
        <route edges="8/6to8/7 8/7to7/7 7/7to6/7 6/7to5/7 5/7to4/7 4/7to3/7 3/7to2/7 2/7to1/7 1/7to1/6 1/6to1/5 1/5to1/4 1/4to1/3 1/3to1/2 1/2to1/1 1/1to0/1"/>
    </vehicle>

    <vehicle id="278" type="HumanStandard" depart="139.00" arrival="517.60">
        <route edges="2/10to3/10 3/10to3/9 3/9to2/9 2/9to1/9 1/9to1/8 1/8to1/7 1/7to1/6 1/6to1/5 1/5to1/4 1/4to1/3 1/3to1/2 1/2to1/1"/>
    </vehicle>

    <vehicle id="279" type="HumanStandard" depart="139.50" arrival="433.10">
        <route edges="9/5to10/5 10/5to10/6 10/6to9/6 9/6to8/6 8/6to7/6 7/6to6/6 6/6to5/6 5/6to4/6 4/6to3/6 3/6to2/6 2/6to1/6 1/6to1/7 1/7to0/7"/>
    </vehicle>

    <vehicle id="280" type="HumanStandard" depart="140.00" arrival="414.90">
        <route edges="8/3to9/3 9/3to9/4 9/4to8/4 8/4to7/4 7/4to6/4 6/4to5/4 5/4to4/4 4/4to3/4 3/4to2/4 2/4to2/5 2/5to2/6 2/6to2/7 2/7to2/8 2/8to2/9 2/9to2/10"/>
    </vehicle>

    <vehicle id="281" type="HumanStandard" depart="140.50" arrival="370.00">
        <route edges="5/0to5/1 5/1to4/1 4/1to3/1 3/1to2/1 2/1to2/2 2/2to2/3 2/3to2/4 2/4to2/5 2/5to2/6 2/6to2/7 2/7to2/8 2/8to2/9 2/9to2/10 2/10to1/10 1/10to1/9"/>
    </vehicle>

    <vehicle id="282" type="HumanStandard" depart="141.00" arrival="303.40">
        <route edges="8/1to9/1 9/1to9/2 9/2to9/3 9/3to9/4 9/4to9/5 9/5to9/6 9/6to9/7 9/7to9/8 9/8to9/9 9/9to9/10 9/10to10/10"/>
    </vehicle>

    <vehicle id="283" type="HumanStandard" depart="141.50" arrival="422.50">
        <route edges="1/2to1/3 1/3to2/3 2/3to3/3 3/3to4/3 4/3to5/3 5/3to6/3 6/3to7/3 7/3to8/3 8/3to9/3 9/3to10/3 10/3to10/2 10/2to10/1 10/1to10/0"/>
    </vehicle>

    <vehicle id="284" type="HumanStandard" depart="142.00" arrival="362.80">
        <route edges="8/11to8/10 8/10to7/10 7/10to6/10 6/10to6/9 6/9to6/8 6/8to6/7 6/7to6/6 6/6to6/5 6/5to6/4 6/4to6/3 6/3to6/2 6/2to7/2"/>
    </vehicle>

    <vehicle id="285" type="HumanStandard" depart="142.50" arrival="454.10">
        <route edges="9/11to9/10 9/10to8/10 8/10to7/10 7/10to6/10 6/10to5/10 5/10to4/10 4/10to3/10 3/10to3/9 3/9to3/8 3/8to3/7 3/7to3/6 3/6to3/5 3/5to3/4 3/4to3/3 3/3to3/2 3/2to3/1 3/1to4/1"/>
    </vehicle>

    <vehicle id="286" type="HumanStandard" depart="143.00" arrival="461.40">
        <route edges="2/8to2/9 2/9to3/9 3/9to3/8 3/8to3/7 3/7to3/6 3/6to3/5 3/5to3/4 3/4to3/3 3/3to3/2 3/2to4/2 4/2to5/2 5/2to6/2 6/2to7/2 7/2to8/2 8/2to9/2 9/2to9/1 9/1to8/1"/>
    </vehicle>

    <vehicle id="287" type="HumanStandard" depart="143.50" arrival="302.40">
        <route edges="3/11to3/10 3/10to3/9 3/9to3/8 3/8to3/7 3/7to3/6 3/6to3/5 3/5to3/4 3/4to3/3 3/3to4/3 4/3to5/3 5/3to6/3 6/3to7/3 7/3to8/3"/>
    </vehicle>

    <vehicle id="288" type="HumanStandard" depart="144.00" arrival="544.10">
        <route edges="9/8to10/8 10/8to10/7 10/7to9/7 9/7to8/7 8/7to7/7 7/7to6/7 6/7to5/7 5/7to4/7 4/7to3/7 3/7to2/7 2/7to2/6 2/6to2/5 2/5to2/4 2/4to2/3 2/3to1/3"/>
    </vehicle>

    <vehicle id="289" type="HumanStandard" depart="144.50" arrival="433.40">
        <route edges="0/6to1/6 1/6to2/6 2/6to3/6 3/6to4/6 4/6to5/6 5/6to6/6 6/6to7/6 7/6to8/6 8/6to9/6 9/6to10/6 10/6to10/5 10/5to10/4 10/4to10/3 10/3to10/2"/>
    </vehicle>

    <vehicle id="290" type="HumanStandard" depart="145.00" arrival="346.50">
        <route edges="3/1to3/2 3/2to4/2 4/2to5/2 5/2to6/2 6/2to7/2 7/2to8/2 8/2to9/2 9/2to10/2 10/2to10/3 10/3to10/4 10/4to10/5 10/5to10/6 10/6to10/7"/>
    </vehicle>

    <vehicle id="291" type="HumanStandard" depart="145.50" arrival="555.10">
        <route edges="8/9to8/10 8/10to7/10 7/10to6/10 6/10to5/10 5/10to4/10 4/10to3/10 3/10to2/10 2/10to1/10 1/10to1/9 1/9to1/8 1/8to1/7 1/7to1/6 1/6to1/5 1/5to1/4 1/4to1/3 1/3to1/2 1/2to2/2"/>
    </vehicle>

    <vehicle id="292" type="HumanStandard" depart="146.00" arrival="438.10">
        <route edges="1/1to2/1 2/1to3/1 3/1to4/1 4/1to5/1 5/1to6/1 6/1to7/1 7/1to8/1 8/1to9/1 9/1to10/1 10/1to10/2 10/2to10/3 10/3to10/4 10/4to10/5 10/5to10/6"/>
    </vehicle>

    <vehicle id="293" type="HumanStandard" depart="146.50" arrival="503.00">
        <route edges="3/1to4/1 4/1to4/2 4/2to4/3 4/3to4/4 4/4to4/5 4/5to4/6 4/6to4/7 4/7to4/8 4/8to4/9 4/9to4/10 4/10to5/10 5/10to6/10 6/10to7/10 7/10to8/10 8/10to9/10 9/10to10/10 10/10to10/9"/>
    </vehicle>

    <vehicle id="294" type="HumanStandard" depart="147.00" arrival="416.10">
        <route edges="1/2to2/2 2/2to2/3 2/3to2/4 2/4to2/5 2/5to2/6 2/6to3/6 3/6to4/6 4/6to5/6 5/6to6/6 6/6to7/6 7/6to8/6 8/6to9/6 9/6to9/7"/>
    </vehicle>

    <vehicle id="295" type="HumanStandard" depart="147.50" arrival="365.80">
        <route edges="1/4to1/3 1/3to1/2 1/2to2/2 2/2to3/2 3/2to4/2 4/2to5/2 5/2to6/2 6/2to7/2 7/2to8/2 8/2to9/2 9/2to10/2"/>
    </vehicle>

    <vehicle id="296" type="HumanStandard" depart="148.00" arrival="436.60">
        <route edges="1/1to1/2 1/2to2/2 2/2to3/2 3/2to4/2 4/2to5/2 5/2to6/2 6/2to7/2 7/2to8/2 8/2to9/2 9/2to10/2 10/2to10/3 10/3to10/4 10/4to10/5 10/5to10/6 10/6to10/7"/>
    </vehicle>

    <vehicle id="297" type="HumanStandard" depart="148.50" arrival="427.00">
        <route edges="9/10to8/10 8/10to7/10 7/10to6/10 6/10to5/10 5/10to4/10 4/10to3/10 3/10to2/10 2/10to2/9 2/9to2/8 2/8to2/7 2/7to2/6 2/6to2/5 2/5to2/4"/>
    </vehicle>

    <vehicle id="298" type="HumanStandard" depart="149.00" arrival="424.20">
        <route edges="9/2to9/3 9/3to8/3 8/3to7/3 7/3to6/3 6/3to5/3 5/3to4/3 4/3to3/3 3/3to2/3 2/3to2/4 2/4to2/5 2/5to2/6 2/6to2/7 2/7to2/8 2/8to2/9 2/9to2/10 2/10to2/11"/>
    </vehicle>

    <vehicle id="299" type="HumanStandard" depart="149.50" arrival="454.10">
        <route edges="4/1to5/1 5/1to5/2 5/2to4/2 4/2to3/2 3/2to3/3 3/3to3/4 3/4to3/5 3/5to3/6 3/6to3/7 3/7to3/8 3/8to3/9 3/9to3/10 3/10to4/10"/>
    </vehicle>

    <vehicle id="300" type="HumanStandard" depart="150.00" arrival="423.00">
        <route edges="9/0to9/1 9/1to8/1 8/1to7/1 7/1to6/1 6/1to5/1 5/1to4/1 4/1to4/2 4/2to4/3 4/3to4/4 4/4to4/5 4/5to4/6 4/6to4/7 4/7to4/8 4/8to4/9"/>
    </vehicle>

    <vehicle id="301" type="HumanStandard" depart="150.50" arrival="429.90">
        <route edges="8/0to8/1 8/1to7/1 7/1to6/1 6/1to5/1 5/1to4/1 4/1to3/1 3/1to2/1 2/1to1/1 1/1to1/2 1/2to1/3 1/3to1/4 1/4to1/5 1/5to1/6 1/6to1/7"/>
    </vehicle>

    <vehicle id="302" type="HumanStandard" depart="151.00" arrival="422.50">
        <route edges="10/7to9/7 9/7to8/7 8/7to7/7 7/7to6/7 6/7to5/7 5/7to4/7 4/7to3/7 3/7to2/7 2/7to2/6 2/6to2/5 2/5to2/4 2/4to2/3 2/3to2/2 2/2to2/1 2/1to2/0"/>
    </vehicle>

    <vehicle id="303" type="HumanStandard" depart="151.50" arrival="432.80">
        <route edges="5/1to6/1 6/1to7/1 7/1to8/1 8/1to9/1 9/1to10/1 10/1to10/2 10/2to10/3 10/3to10/4 10/4to10/5 10/5to10/6 10/6to10/7 10/7to10/8 10/8to10/9"/>
    </vehicle>

    <vehicle id="304" type="HumanStandard" depart="152.00" arrival="511.80">
        <route edges="10/1to10/2 10/2to9/2 9/2to8/2 8/2to7/2 7/2to6/2 6/2to5/2 5/2to4/2 4/2to3/2 3/2to3/3 3/3to3/4 3/4to3/5 3/5to3/6 3/6to3/7 3/7to3/8 3/8to3/9 3/9to4/9"/>
    </vehicle>

    <vehicle id="305" type="HumanStandard" depart="152.50" arrival="325.30">
        <route edges="6/8to6/7 6/7to5/7 5/7to4/7 4/7to3/7 3/7to2/7 2/7to1/7 1/7to1/6 1/6to1/5 1/5to1/4 1/4to1/3 1/3to1/2 1/2to1/1 1/1to1/0"/>
    </vehicle>

    <vehicle id="306" type="HumanStandard" depart="153.00" arrival="452.80">
        <route edges="1/6to1/5 1/5to1/4 1/4to1/3 1/3to1/2 1/2to2/2 2/2to3/2 3/2to4/2 4/2to5/2 5/2to6/2 6/2to7/2 7/2to8/2 8/2to9/2 9/2to9/1"/>
    </vehicle>

    <vehicle id="307" type="HumanStandard" depart="153.50" arrival="504.60">
        <route edges="5/10to6/10 6/10to6/9 6/9to5/9 5/9to4/9 4/9to3/9 3/9to2/9 2/9to2/8 2/8to2/7 2/7to2/6 2/6to2/5 2/5to2/4 2/4to2/3 2/3to2/2 2/2to2/1 2/1to1/1"/>
    </vehicle>

    <vehicle id="308" type="HumanStandard" depart="154.00" arrival="418.50">
        <route edges="4/8to4/9 4/9to5/9 5/9to5/8 5/8to5/7 5/7to5/6 5/6to5/5 5/5to5/4 5/4to5/3 5/3to5/2 5/2to5/1 5/1to6/1 6/1to7/1 7/1to8/1 8/1to9/1 9/1to9/0"/>
    </vehicle>

    <vehicle id="309" type="HumanStandard" depart="154.50" arrival="369.70">
        <route edges="5/0to5/1 5/1to5/2 5/2to5/3 5/3to5/4 5/4to5/5 5/5to5/6 5/6to5/7 5/7to5/8 5/8to5/9 5/9to4/9"/>
    </vehicle>

    <vehicle id="310" type="HumanStandard" depart="155.00" arrival="423.50">
        <route edges="9/4to10/4 10/4to10/3 10/3to9/3 9/3to8/3 8/3to7/3 7/3to6/3 6/3to5/3 5/3to4/3 4/3to3/3 3/3to2/3 2/3to1/3 1/3to1/4 1/4to0/4"/>
    </vehicle>

    <vehicle id="312" type="HumanStandard" depart="156.00" arrival="424.80">
        <route edges="4/2to4/1 4/1to5/1 5/1to5/2 5/2to5/3 5/3to5/4 5/4to5/5 5/5to5/6 5/6to5/7 5/7to5/8 5/8to5/9 5/9to5/10 5/10to6/10 6/10to7/10 7/10to8/10 8/10to9/10 9/10to9/11"/>
    </vehicle>

    <vehicle id="313" type="HumanStandard" depart="156.50" arrival="552.00">
        <route edges="11/1to10/1 10/1to9/1 9/1to8/1 8/1to7/1 7/1to6/1 6/1to5/1 5/1to4/1 4/1to3/1 3/1to3/2 3/2to3/3 3/3to3/4 3/4to3/5 3/5to3/6 3/6to3/7 3/7to3/8 3/8to3/9 3/9to4/9"/>
    </vehicle>

    <vehicle id="311" type="HumanStandard" depart="156.70" arrival="416.60">
        <route edges="2/8to3/8 3/8to4/8 4/8to5/8 5/8to6/8 6/8to7/8 7/8to8/8 8/8to9/8 9/8to10/8 10/8to10/7 10/7to11/7"/>
    </vehicle>

    <vehicle id="314" type="HumanStandard" depart="157.00" arrival="354.10">