<?xml version="1.0" encoding="UTF-8"?>

<!-- generated on Sun Apr 30 18:24:55 2017 by SUMO gui Version 0.21.0
<?xml version="1.0" encoding="UTF-8"?>

<configuration xmlns:xsi="http://www.w3.org/2001/XMLSchema-instance" xsi:noNamespaceSchemaLocation="http://sumo-sim.org/xsd/sumo-gui.exeConfiguration.xsd">

    <input>
        <net-file value="test_scenario/test.net.xml"/>
        <route-files value="test_scenario/test.rou.xml"/>
    </input>

    <output>
        <summary-output value="test_scenario/test-summary.xml"/>
        <tripinfo-output value="test_scenario/test-tripinfo.xml"/>
        <vehroute-output value="test_scenario/test-route.rou.xml"/>
        <vehroute-output.last-route value="true"/>
        <vehroute-output.sorted value="true"/>
        <save-state.prefix value="test_scenario/state"/>
    </output>

    <time>
        <begin value="100"/>
        <end value="600"/>
        <step-length value="0.100000"/>
    </time>

    <processing>
        <ignore-junction-blocker value="20"/>
        <time-to-teleport value="600"/>
        <max-depart-delay value="600"/>
    </processing>

    <report>
        <verbose value="true"/>
    </report>

    <emissions>
        <phemlight-path value="test_scenario/./PHEMlight/"/>
        <device.emissions.probability value="1"/>
    </emissions>

</configuration>
-->

<tripinfos xmlns:xsi="http://www.w3.org/2001/XMLSchema-instance" xsi:noNamespaceSchemaLocation="http://sumo-sim.org/xsd/tripinfo_file.xsd">
    <tripinfo id="201" depart="100.50" departLane="7/9to6/9_0" departPos="4.10" departSpeed="0.00" departDelay="0.00" arrival="249.70" arrivalLane="6/1to6/0_0" arrivalPos="95.25" arrivalSpeed="13.90" duration="149.20" routeLength="905.65" waitSteps="633" rerouteNo="0" devices="vehroute_201 tripinfo_201 emissions_201" vType="HumanStandard" vaporized="">
        <emissions CO_abs="2086.266844" CO2_abs="245131.103265" HC_abs="66.607229" PMx_abs="24.448741" NOx_abs="472.531102" fuel_abs="97.730063"/>
    </tripinfo>
    <tripinfo id="240" depart="120.00" departLane="10/11to10/10_0" departPos="4.10" departSpeed="0.00" departDelay="0.00" arrival="271.00" arrivalLane="9/1to9/0_0" arrivalPos="95.25" arrivalSpeed="13.90" duration="151.00" routeLength="1091.40" waitSteps="525" rerouteNo="0" devices="vehroute_240 tripinfo_240 emissions_240" vType="HumanStandard" vaporized="">
        <emissions CO_abs="1725.405908" CO2_abs="262263.668718" HC_abs="65.230809" PMx_abs="23.822775" NOx_abs="489.003188" fuel_abs="104.560583"/>
    </tripinfo>
    <tripinfo id="235" depart="117.50" departLane="6/9to6/8_0" departPos="4.10" departSpeed="0.00" departDelay="0.00" arrival="280.00" arrivalLane="7/1to7/0_0" arrivalPos="95.25" arrivalSpeed="13.90" duration="162.50" routeLength="905.65" waitSteps="705" rerouteNo="0" devices="vehroute_235 tripinfo_235 emissions_235" vType="HumanStandard" vaporized="">
        <emissions CO_abs="2853.717389" CO2_abs="273058.086306" HC_abs="79.310997" PMx_abs="30.004067" NOx_abs="546.207029" fuel_abs="108.864104"/>
    </tripinfo>
    <tripinfo id="217" depart="108.50" departLane="0/8to1/8_0" departPos="4.10" departSpeed="0.00" departDelay="0.00" arrival="287.10" arrivalLane="8/9to9/9_0" arrivalPos="90.50" arrivalSpeed="13.90" duration="178.60" routeLength="905.65" waitSteps="861" rerouteNo="0" devices="vehroute_217 tripinfo_217 emissions_217" vType="HumanStandard" vaporized="">
        <emissions CO_abs="2892.531499" CO2_abs="276165.677898" HC_abs="81.131952" PMx_abs="30.150736" NOx_abs="550.845403" fuel_abs="110.103052"/>
    </tripinfo>
    <tripinfo id="212" depart="106.00" departLane="10/9to9/9_0" departPos="4.10" departSpeed="0.00" departDelay="0.00" arrival="294.70" arrivalLane="9/1to9/0_0" arrivalPos="95.25" arrivalSpeed="13.90" duration="188.70" routeLength="905.65" waitSteps="985" rerouteNo="0" devices="vehroute_212 tripinfo_212 emissions_212" vType="HumanStandard" vaporized="">
        <emissions CO_abs="2485.520144" CO2_abs="262913.704884" HC_abs="75.051726" PMx_abs="27.211285" NOx_abs="513.534245" fuel_abs="104.819704"/>
    </tripinfo>
    <tripinfo id="287" depart="143.50" departLane="3/11to3/10_0" departPos="4.10" departSpeed="0.00" departDelay="0.00" arrival="302.40" arrivalLane="7/3to8/3_0" arrivalPos="90.50" arrivalSpeed="13.90" duration="158.90" routeLength="1177.15" waitSteps="509" rerouteNo="0" devices="vehroute_287 tripinfo_287 emissions_287" vType="HumanStandard" vaporized="">
        <emissions CO_abs="2300.929053" CO2_abs="298745.603866" HC_abs="77.153418" PMx_abs="28.997928" NOx_abs="570.433167" fuel_abs="119.105368"/>
    </tripinfo>
    <tripinfo id="282" depart="141.00" departLane="8/1to9/1_0" departPos="4.10" departSpeed="0.00" departDelay="0.00" arrival="303.40" arrivalLane="9/10to10/10_0" arrivalPos="90.50" arrivalSpeed="13.90" duration="162.40" routeLength="991.40" waitSteps="663" rerouteNo="0" devices="vehroute_282 tripinfo_282 emissions_282" vType="HumanStandard" vaporized="">
        <emissions CO_abs="2926.080659" CO2_abs="288295.798763" HC_abs="82.537097" PMx_abs="31.137200" NOx_abs="573.994690" fuel_abs="114.939152"/>
    </tripinfo>
    <tripinfo id="231" depart="115.50" departLane="3/11to3/10_0" departPos="4.10" departSpeed="0.00" departDelay="0.00" arrival="317.80" arrivalLane="4/1to4/2_0" arrivalPos="90.50" arrivalSpeed="6.18" duration="202.30" routeLength="1086.65" waitSteps="910" rerouteNo="0" devices="vehroute_231 tripinfo_231 emissions_231" vType="HumanStandard" vaporized="">
        <emissions CO_abs="3013.662542" CO2_abs="310297.548514" HC_abs="88.188263" PMx_abs="32.844798" NOx_abs="611.560624" fuel_abs="123.710921"/>
    </tripinfo>
    <tripinfo id="216" depart="108.00" departLane="3/2to3/3_0" departPos="4.10" departSpeed="0.00" departDelay="0.00" arrival="317.80" arrivalLane="8/9to9/9_0" arrivalPos="90.50" arrivalSpeed="6.18" duration="209.80" routeLength="1172.40" waitSteps="955" rerouteNo="0" devices="vehroute_216 tripinfo_216 emissions_216" vType="HumanStandard" vaporized="">
        <emissions CO_abs="2321.739734" CO2_abs="297040.692984" HC_abs="77.974516" PMx_abs="28.757222" NOx_abs="566.453642" fuel_abs="118.425641"/>
    </tripinfo>
    <tripinfo id="274" depart="137.00" departLane="0/8to1/8_0" departPos="4.10" departSpeed="0.00" departDelay="0.00" arrival="320.30" arrivalLane="8/8to9/8_0" arrivalPos="90.50" arrivalSpeed="8.94" duration="183.30" routeLength="815.15" waitSteps="1004" rerouteNo="0" devices="vehroute_274 tripinfo_274 emissions_274" vType="HumanStandard" vaporized="">
        <emissions CO_abs="2225.034711" CO2_abs="235754.698421" HC_abs="67.922263" PMx_abs="24.207855" NOx_abs="458.962644" fuel_abs="93.991818"/>
    </tripinfo>
    <tripinfo id="221" depart="110.50" departLane="0/3to1/3_0" departPos="4.10" departSpeed="0.00" departDelay="0.00" arrival="324.60" arrivalLane="9/6to9/5_0" arrivalPos="90.50" arrivalSpeed="13.90" duration="214.10" routeLength="1177.15" waitSteps="973" rerouteNo="0" devices="vehroute_221 tripinfo_221 emissions_221" vType="HumanStandard" vaporized="">
        <emissions CO_abs="3069.793039" CO2_abs="328295.897618" HC_abs="91.166851" PMx_abs="34.362191" NOx_abs="644.643668" fuel_abs="130.886596"/>
    </tripinfo>
    <tripinfo id="218" depart="109.00" departLane="3/7to2/7_0" departPos="4.10" departSpeed="0.00" departDelay="0.00" arrival="325.00" arrivalLane="9/1to9/0_0" arrivalPos="95.25" arrivalSpeed="13.90" duration="216.00" routeLength="1358.15" waitSteps="893" rerouteNo="0" devices="vehroute_218 tripinfo_218 emissions_218" vType="HumanStandard" vaporized="">
        <emissions CO_abs="2795.386234" CO2_abs="351532.432713" HC_abs="92.840799" PMx_abs="34.242700" NOx_abs="671.928018" fuel_abs="140.150675"/>
    </tripinfo>
    <tripinfo id="305" depart="152.50" departLane="6/8to6/7_0" departPos="4.10" departSpeed="0.00" departDelay="0.00" arrival="325.30" arrivalLane="1/1to1/0_0" arrivalPos="95.25" arrivalSpeed="13.90" duration="172.80" routeLength="1177.15" waitSteps="597" rerouteNo="0" devices="vehroute_305 tripinfo_305 emissions_305" vType="HumanStandard" vaporized="">
        <emissions CO_abs="2859.551507" CO2_abs="319863.925562" HC_abs="86.881132" PMx_abs="32.993309" NOx_abs="624.629659" fuel_abs="127.524905"/>
    </tripinfo>
    <tripinfo id="210" depart="105.00" departLane="9/3to10/3_0" departPos="4.10" departSpeed="0.00" departDelay="0.00" arrival="326.70" arrivalLane="1/1to0/1_0" arrivalPos="95.25" arrivalSpeed="13.90" duration="221.70" routeLength="1177.15" waitSteps="1051" rerouteNo="0" devices="vehroute_210 tripinfo_210 emissions_210" vType="HumanStandard" vaporized="">
        <emissions CO_abs="3075.110112" CO2_abs="327800.829069" HC_abs="91.260860" PMx_abs="34.332391" NOx_abs="643.765030" fuel_abs="130.689219"/>
    </tripinfo>
    <tripinfo id="214" depart="107.00" departLane="0/4to1/4_0" departPos="4.10" departSpeed="0.00" departDelay="0.00" arrival="327.30" arrivalLane="9/8to9/9_0" arrivalPos="90.50" arrivalSpeed="13.90" duration="220.30" routeLength="1267.65" waitSteps="943" rerouteNo="0" devices="vehroute_214 tripinfo_214 emissions_214" vType="HumanStandard" vaporized="">
        <emissions CO_abs="3408.825612" CO2_abs="357154.411554" HC_abs="99.297056" PMx_abs="37.912232" NOx_abs="705.106862" fuel_abs="142.392046"/>
    </tripinfo>
    <tripinfo id="228" depart="114.00" departLane="5/10to4/10_0" departPos="4.10" departSpeed="0.00" departDelay="0.00" arrival="328.50" arrivalLane="9/1to9/0_0" arrivalPos="95.25" arrivalSpeed="13.90" duration="214.50" routeLength="1448.65" waitSteps="732" rerouteNo="0" devices="vehroute_228 tripinfo_228 emissions_228" vType="HumanStandard" vaporized="">
        <emissions CO_abs="3492.758481" CO2_abs="391613.232315" HC_abs="106.079015" PMx_abs="40.393982" NOx_abs="764.862088" fuel_abs="156.130267"/>
    </tripinfo>
    <tripinfo id="242" depart="121.00" departLane="7/1to8/1_0" departPos="4.10" departSpeed="0.00" departDelay="0.00" arrival="332.10" arrivalLane="5/9to5/10_0" arrivalPos="90.50" arrivalSpeed="13.90" duration="211.10" routeLength="1172.40" waitSteps="992" rerouteNo="0" devices="vehroute_242 tripinfo_242 emissions_242" vType="HumanStandard" vaporized="">
        <emissions CO_abs="2617.919165" CO2_abs="312551.361602" HC_abs="84.428633" PMx_abs="30.990339" NOx_abs="601.129953" fuel_abs="124.609502"/>
    </tripinfo>
    <tripinfo id="215" depart="107.50" departLane="10/4to10/5_0" departPos="4.10" departSpeed="0.00" departDelay="0.00" arrival="335.40" arrivalLane="1/3to1/2_0" arrivalPos="90.50" arrivalSpeed="13.23" duration="227.90" routeLength="1172.40" waitSteps="1086" rerouteNo="0" devices="vehroute_215 tripinfo_215 emissions_215" vType="HumanStandard" vaporized="">
        <emissions CO_abs="3496.436098" CO2_abs="342541.790469" HC_abs="97.815002" PMx_abs="37.411660" NOx_abs="683.898463" fuel_abs="136.566204"/>
    </tripinfo>
    <tripinfo id="260" depart="132.00" departLane="6/1to6/2_0" departPos="4.10" departSpeed="0.00" departDelay="2.00" arrival="339.30" arrivalLane="2/9to2/10_0" arrivalPos="90.50" arrivalSpeed="13.90" duration="207.30" routeLength="1172.40" waitSteps="953" rerouteNo="0" devices="vehroute_260 tripinfo_260 emissions_260" vType="HumanStandard" vaporized="">
        <emissions CO_abs="2585.872960" CO2_abs="311780.332119" HC_abs="84.271629" PMx_abs="30.700762" NOx_abs="598.066588" fuel_abs="124.302105"/>
    </tripinfo>
    <tripinfo id="255" depart="127.50" departLane="8/1to9/1_0" departPos="4.10" departSpeed="0.00" departDelay="0.00" arrival="340.60" arrivalLane="5/10to5/11_0" arrivalPos="95.25" arrivalSpeed="13.90" duration="213.10" routeLength="1358.15" waitSteps="852" rerouteNo="0" devices="vehroute_255 tripinfo_255 emissions_255" vType="HumanStandard" vaporized="">
        <emissions CO_abs="2979.126081" CO2_abs="356660.672167" HC_abs="94.832897" PMx_abs="35.691513" NOx_abs="688.672363" fuel_abs="142.195221"/>
    </tripinfo>
    <tripinfo id="220" depart="110.00" departLane="5/2to4/2_0" departPos="4.10" departSpeed="0.00" departDelay="0.00" arrival="340.60" arrivalLane="2/10to2/11_0" arrivalPos="95.25" arrivalSpeed="13.90" duration="230.60" routeLength="1086.65" waitSteps="1261" rerouteNo="0" devices="vehroute_220 tripinfo_220 emissions_220" vType="HumanStandard" vaporized="">
        <emissions CO_abs="2607.712629" CO2_abs="304272.785800" HC_abs="86.387856" PMx_abs="29.549181" NOx_abs="579.785714" fuel_abs="121.308952"/>
    </tripinfo>
    <tripinfo id="206" depart="103.00" departLane="3/11to3/10_0" departPos="4.10" departSpeed="0.00" departDelay="0.00" arrival="341.40" arrivalLane="1/3to1/2_0" arrivalPos="90.50" arrivalSpeed="9.63" duration="238.40" routeLength="996.15" waitSteps="1330" rerouteNo="0" devices="vehroute_206 tripinfo_206 emissions_206" vType="HumanStandard" vaporized="">
        <emissions CO_abs="3283.388901" CO2_abs="305473.732409" HC_abs="92.022850" PMx_abs="33.250951" NOx_abs="609.181219" fuel_abs="121.787719"/>
    </tripinfo>
    <tripinfo id="290" depart="145.00" departLane="3/1to3/2_0" departPos="4.10" departSpeed="0.00" departDelay="0.00" arrival="346.50" arrivalLane="10/6to10/7_0" arrivalPos="90.50" arrivalSpeed="13.90" duration="201.50" routeLength="1172.40" waitSteps="866" rerouteNo="0" devices="vehroute_290 tripinfo_290 emissions_290" vType="HumanStandard" vaporized="">
        <emissions CO_abs="2581.722980" CO2_abs="306208.796437" HC_abs="80.425913" PMx_abs="31.088004" NOx_abs="594.739204" fuel_abs="122.080820"/>
    </tripinfo>
    <tripinfo id="209" depart="104.50" departLane="5/9to4/9_0" departPos="4.10" departSpeed="0.00" departDelay="0.00" arrival="346.90" arrivalLane="1/1to1/0_0" arrivalPos="95.25" arrivalSpeed="13.90" duration="242.40" routeLength="1177.15" waitSteps="1236" rerouteNo="0" devices="vehroute_209 tripinfo_209 emissions_209" vType="HumanStandard" vaporized="">
        <emissions CO_abs="3206.433385" CO2_abs="343447.163817" HC_abs="99.528730" PMx_abs="34.835477" NOx_abs="665.353375" fuel_abs="136.927171"/>
    </tripinfo>
    <tripinfo id="371" depart="185.50" departLane="3/0to3/1_0" departPos="4.10" departSpeed="0.00" departDelay="0.00" arrival="347.40" arrivalLane="3/9to3/10_0" arrivalPos="90.50" arrivalSpeed="13.90" duration="161.90" routeLength="905.65" waitSteps="777" rerouteNo="0" devices="vehroute_371 tripinfo_371 emissions_371" vType="HumanStandard" vaporized="">
        <emissions CO_abs="1680.037318" CO2_abs="230248.427581" HC_abs="60.072442" PMx_abs="21.470422" NOx_abs="432.957946" fuel_abs="91.796578"/>
    </tripinfo>
    <tripinfo id="205" depart="102.50" departLane="10/5to9/5_0" departPos="4.10" departSpeed="0.00" departDelay="0.00" arrival="347.60" arrivalLane="1/8to0/8_0" arrivalPos="95.25" arrivalSpeed="13.90" duration="245.10" routeLength="1177.15" waitSteps="1244" rerouteNo="0" devices="vehroute_205 tripinfo_205 emissions_205" vType="HumanStandard" vaporized="">
        <emissions CO_abs="3205.479562" CO2_abs="337383.890210" HC_abs="95.708043" PMx_abs="35.196894" NOx_abs="661.183032" fuel_abs="134.509836"/>
    </tripinfo>
    <tripinfo id="252" depart="126.00" departLane="10/4to10/5_0" departPos="4.10" departSpeed="0.00" departDelay="0.00" arrival="348.40" arrivalLane="1/8to0/8_0" arrivalPos="95.25" arrivalSpeed="13.90" duration="222.40" routeLength="1267.65" waitSteps="950" rerouteNo="0" devices="vehroute_252 tripinfo_252 emissions_252" vType="HumanStandard" vaporized="">
        <emissions CO_abs="3123.694905" CO2_abs="349487.178539" HC_abs="96.689204" PMx_abs="35.563781" NOx_abs="678.737301" fuel_abs="139.335243"/>
    </tripinfo>
    <tripinfo id="233" depart="116.50" departLane="6/0to6/1_0" departPos="4.10" departSpeed="0.00" departDelay="0.00" arrival="349.10" arrivalLane="1/9to0/9_0" arrivalPos="95.25" arrivalSpeed="13.90" duration="232.60" routeLength="1362.90" waitSteps="1002" rerouteNo="0" devices="vehroute_233 tripinfo_233 emissions_233" vType="HumanStandard" vaporized="">
        <emissions CO_abs="3230.755320" CO2_abs="368956.621004" HC_abs="101.646212" PMx_abs="37.029033" NOx_abs="713.410314" fuel_abs="147.097418"/>
    </tripinfo>
    <tripinfo id="271" depart="135.50" departLane="8/1to7/1_0" departPos="4.10" departSpeed="0.00" departDelay="0.00" arrival="350.60" arrivalLane="5/9to5/10_0" arrivalPos="90.50" arrivalSpeed="8.88" duration="215.10" routeLength="1081.90" waitSteps="1083" rerouteNo="0" devices="vehroute_271 tripinfo_271 emissions_271" vType="HumanStandard" vaporized="">
        <emissions CO_abs="2276.732621" CO2_abs="282347.241928" HC_abs="76.286929" PMx_abs="27.297443" NOx_abs="537.912170" fuel_abs="112.567578"/>
    </tripinfo>
    <tripinfo id="347" depart="173.50" departLane="10/8to9/8_0" departPos="4.10" departSpeed="0.00" departDelay="0.00" arrival="351.80" arrivalLane="3/3to2/3_0" arrivalPos="90.50" arrivalSpeed="13.90" duration="178.30" routeLength="1172.40" waitSteps="730" rerouteNo="0" devices="vehroute_347 tripinfo_347 emissions_347" vType="HumanStandard" vaporized="">
        <emissions CO_abs="1821.572121" CO2_abs="278514.266604" HC_abs="68.345514" PMx_abs="25.460746" NOx_abs="520.640970" fuel_abs="111.039455"/>
    </tripinfo>
    <tripinfo id="276" depart="138.00" departLane="4/3to4/4_0" departPos="4.10" departSpeed="0.00" departDelay="0.00" arrival="353.80" arrivalLane="10/9to11/9_0" arrivalPos="95.25" arrivalSpeed="13.90" duration="215.80" routeLength="1177.15" waitSteps="1009" rerouteNo="0" devices="vehroute_276 tripinfo_276 emissions_276" vType="HumanStandard" vaporized="">
        <emissions CO_abs="2581.740020" CO2_abs="306422.115494" HC_abs="80.459559" PMx_abs="31.101823" NOx_abs="595.097909" fuel_abs="122.165867"/>
    </tripinfo>
    <tripinfo id="314" depart="157.00" departLane="9/9to9/10_0" departPos="4.10" departSpeed="0.00" departDelay="0.00" arrival="354.10" arrivalLane="6/1to6/0_0" arrivalPos="95.25" arrivalSpeed="13.90" duration="197.10" routeLength="1267.65" waitSteps="757" rerouteNo="0" devices="vehroute_314 tripinfo_314 emissions_314" vType="HumanStandard" vaporized="">
        <emissions CO_abs="2664.531518" CO2_abs="331587.378900" HC_abs="88.119980" PMx_abs="32.376300" NOx_abs="634.277483" fuel_abs="132.198880"/>
    </tripinfo>
    <tripinfo id="208" depart="104.00" departLane="3/8to4/8_0" departPos="4.10" departSpeed="0.00" departDelay="0.00" arrival="355.80" arrivalLane="10/3to11/3_0" arrivalPos="95.25" arrivalSpeed="13.90" duration="251.80" routeLength="1177.15" waitSteps="1348" rerouteNo="0" devices="vehroute_208 tripinfo_208 emissions_208" vType="HumanStandard" vaporized="">
        <emissions CO_abs="3092.703770" CO2_abs="334671.140724" HC_abs="94.950782" PMx_abs="34.246299" NOx_abs="650.825803" fuel_abs="133.428307"/>
    </tripinfo>
    <tripinfo id="222" depart="111.00" departLane="8/1to7/1_0" departPos="4.10" departSpeed="0.00" departDelay="0.00" arrival="356.00" arrivalLane="5/10to5/11_0" arrivalPos="95.25" arrivalSpeed="13.90" duration="245.00" routeLength="1177.15" waitSteps="1325" rerouteNo="0" devices="vehroute_222 tripinfo_222 emissions_222" vType="HumanStandard" vaporized="">
        <emissions CO_abs="2628.887511" CO2_abs="321177.208046" HC_abs="89.858356" PMx_abs="30.587126" NOx_abs="607.659671" fuel_abs="128.048495"/>
    </tripinfo>
    <tripinfo id="402" depart="201.00" departLane="6/0to6/1_0" departPos="4.10" departSpeed="0.00" departDelay="0.00" arrival="356.00" arrivalLane="6/10to6/11_0" arrivalPos="95.25" arrivalSpeed="13.90" duration="155.00" routeLength="1000.90" waitSteps="609" rerouteNo="0" devices="vehroute_402 tripinfo_402 emissions_402" vType="HumanStandard" vaporized="">
        <emissions CO_abs="2301.392864" CO2_abs="268223.245484" HC_abs="72.060099" PMx_abs="27.131016" NOx_abs="519.884088" fuel_abs="106.936552"/>
    </tripinfo>
    <tripinfo id="263" depart="131.50" departLane="10/9to10/8_0" departPos="4.10" departSpeed="0.00" departDelay="0.00" arrival="362.70" arrivalLane="2/3to3/3_0" arrivalPos="90.50" arrivalSpeed="6.07" duration="231.20" routeLength="1353.40" waitSteps="959" rerouteNo="0" devices="vehroute_263 tripinfo_263 emissions_263" vType="HumanStandard" vaporized="">
        <emissions CO_abs="3450.032149" CO2_abs="369788.588311" HC_abs="101.684728" PMx_abs="38.905723" NOx_abs="727.814880" fuel_abs="147.429104"/>
    </tripinfo>
    <tripinfo id="284" depart="142.00" departLane="8/11to8/10_0" departPos="4.10" departSpeed="0.00" departDelay="0.00" arrival="362.80" arrivalLane="6/2to7/2_0" arrivalPos="90.50" arrivalSpeed="6.18" duration="220.80" routeLength="1086.65" waitSteps="1084" rerouteNo="0" devices="vehroute_284 tripinfo_284 emissions_284" vType="HumanStandard" vaporized="">
        <emissions CO_abs="3402.604539" CO2_abs="323336.469771" HC_abs="93.940647" PMx_abs="35.701039" NOx_abs="648.082497" fuel_abs="128.909329"/>
    </tripinfo>
    <tripinfo id="350" depart="175.00" departLane="9/3to9/4_0" departPos="4.10" departSpeed="0.00" departDelay="0.00" arrival="362.80" arrivalLane="3/9to2/9_0" arrivalPos="90.50" arrivalSpeed="6.19" duration="187.80" routeLength="1172.40" waitSteps="748" rerouteNo="0" devices="vehroute_350 tripinfo_350 emissions_350" vType="HumanStandard" vaporized="">
        <emissions CO_abs="2583.212665" CO2_abs="308476.848682" HC_abs="83.265847" PMx_abs="30.617846" NOx_abs="593.429385" fuel_abs="122.985055"/>
    </tripinfo>
    <tripinfo id="248" depart="124.00" departLane="4/11to4/10_0" departPos="4.10" departSpeed="0.00" departDelay="0.00" arrival="362.80" arrivalLane="9/1to9/2_0" arrivalPos="90.50" arrivalSpeed="6.18" duration="238.80" routeLength="1448.65" waitSteps="913" rerouteNo="0" devices="vehroute_248 tripinfo_248 emissions_248" vType="HumanStandard" vaporized="">
        <emissions CO_abs="3656.171803" CO2_abs="396816.825449" HC_abs="109.132919" PMx_abs="41.437423" NOx_abs="778.379380" fuel_abs="158.204854"/>
    </tripinfo>
    <tripinfo id="295" depart="147.50" departLane="1/4to1/3_0" departPos="4.10" departSpeed="0.00" departDelay="0.00" arrival="365.80" arrivalLane="9/2to10/2_0" arrivalPos="90.50" arrivalSpeed="4.11" duration="218.30" routeLength="991.40" waitSteps="1123" rerouteNo="0" devices="vehroute_295 tripinfo_295 emissions_295" vType="HumanStandard" vaporized="">
        <emissions CO_abs="2688.007662" CO2_abs="284079.748455" HC_abs="82.001904" PMx_abs="29.177159" NOx_abs="553.091414" fuel_abs="113.258282"/>
    </tripinfo>
    <tripinfo id="213" depart="106.50" departLane="3/8to3/7_0" departPos="4.10" departSpeed="0.00" departDelay="0.00" arrival="369.10" arrivalLane="9/1to10/1_0" arrivalPos="90.50" arrivalSpeed="8.60" duration="262.60" routeLength="1262.90" waitSteps="1285" rerouteNo="0" devices="vehroute_213 tripinfo_213 emissions_213" vType="HumanStandard" vaporized="">
        <emissions CO_abs="3558.104210" CO2_abs="363001.490400" HC_abs="103.295266" PMx_abs="38.581940" NOx_abs="716.979949" fuel_abs="144.723179"/>
    </tripinfo>
    <tripinfo id="226" depart="113.00" departLane="8/11to8/10_0" departPos="4.10" departSpeed="0.00" departDelay="0.00" arrival="369.60" arrivalLane="6/1to6/2_0" arrivalPos="90.50" arrivalSpeed="13.90" duration="256.60" routeLength="1177.15" waitSteps="1362" rerouteNo="0" devices="vehroute_226 tripinfo_226 emissions_226" vType="HumanStandard" vaporized="">
        <emissions CO_abs="3505.592378" CO2_abs="349085.417852" HC_abs="101.714964" PMx_abs="37.173442" NOx_abs="689.357843" fuel_abs="139.175048"/>
    </tripinfo>
    <tripinfo id="309" depart="154.50" departLane="5/0to5/1_0" departPos="4.10" departSpeed="0.00" departDelay="0.00" arrival="369.70" arrivalLane="5/9to4/9_0" arrivalPos="90.50" arrivalSpeed="13.90" duration="215.20" routeLength="905.65" waitSteps="1241" rerouteNo="0" devices="vehroute_309 tripinfo_309 emissions_309" vType="HumanStandard" vaporized="">
        <emissions CO_abs="2703.745004" CO2_abs="279103.142596" HC_abs="84.210114" PMx_abs="28.207436" NOx_abs="539.345332" fuel_abs="111.274178"/>
    </tripinfo>
    <tripinfo id="281" depart="140.50" departLane="5/0to5/1_0" departPos="4.10" departSpeed="0.00" departDelay="0.00" arrival="370.00" arrivalLane="1/10to1/9_0" arrivalPos="90.50" arrivalSpeed="13.90" duration="229.50" routeLength="1358.15" waitSteps="949" rerouteNo="0" devices="vehroute_281 tripinfo_281 emissions_281" vType="HumanStandard" vaporized="">
        <emissions CO_abs="3464.567470" CO2_abs="375750.674740" HC_abs="103.661945" PMx_abs="39.138774" NOx_abs="736.476500" fuel_abs="149.806099"/>
    </tripinfo>
    <tripinfo id="338" depart="169.00" departLane="1/0to1/1_0" departPos="4.10" departSpeed="0.00" departDelay="0.00" arrival="373.40" arrivalLane="2/9to3/9_0" arrivalPos="90.50" arrivalSpeed="13.90" duration="204.40" routeLength="996.15" waitSteps="1065" rerouteNo="0" devices="vehroute_338 tripinfo_338 emissions_338" vType="HumanStandard" vaporized="">
        <emissions CO_abs="2728.724055" CO2_abs="289374.697513" HC_abs="84.698967" PMx_abs="29.221458" NOx_abs="560.251623" fuel_abs="115.369297"/>
    </tripinfo>
    <tripinfo id="262" depart="131.00" departLane="7/0to7/1_0" departPos="4.10" departSpeed="0.00" departDelay="0.00" arrival="377.80" arrivalLane="5/10to4/10_0" arrivalPos="90.50" arrivalSpeed="8.79" duration="246.80" routeLength="1177.15" waitSteps="1175" rerouteNo="0" devices="vehroute_262 tripinfo_262 emissions_262" vType="HumanStandard" vaporized="">
        <emissions CO_abs="3400.286734" CO2_abs="342088.670685" HC_abs="98.773962" PMx_abs="36.393040" NOx_abs="675.470506" fuel_abs="136.385550"/>
    </tripinfo>
    <tripinfo id="359" depart="179.50" departLane="6/0to6/1_0" departPos="4.10" departSpeed="0.00" departDelay="0.00" arrival="379.90" arrivalLane="8/9to8/10_0" arrivalPos="90.50" arrivalSpeed="13.90" duration="200.40" routeLength="1086.65" waitSteps="954" rerouteNo="0" devices="vehroute_359 tripinfo_359 emissions_359" vType="HumanStandard" vaporized="">
        <emissions CO_abs="2631.333861" CO2_abs="299444.068986" HC_abs="82.898399" PMx_abs="30.112820" NOx_abs="578.787875" fuel_abs="119.383816"/>
    </tripinfo>
    <tripinfo id="455" depart="229.00" departLane="3/2to3/3_0" departPos="4.10" departSpeed="0.00" departDelay="1.50" arrival="380.30" arrivalLane="5/10to5/11_0" arrivalPos="95.25" arrivalSpeed="13.90" duration="151.30" routeLength="996.15" waitSteps="583" rerouteNo="0" devices="vehroute_455 tripinfo_455 emissions_455" vType="HumanStandard" vaporized="">
        <emissions CO_abs="2121.613504" CO2_abs="262695.290698" HC_abs="70.571042" PMx_abs="25.538506" NOx_abs="501.510368" fuel_abs="104.732644"/>
    </tripinfo>
    <tripinfo id="273" depart="136.50" departLane="3/9to4/9_0" departPos="4.10" departSpeed="0.00" departDelay="0.00" arrival="384.30" arrivalLane="7/1to7/0_0" arrivalPos="95.25" arrivalSpeed="13.90" duration="247.80" routeLength="1177.15" waitSteps="1309" rerouteNo="0" devices="vehroute_273 tripinfo_273 emissions_273" vType="HumanStandard" vaporized="">
        <emissions CO_abs="3148.581658" CO2_abs="335750.523037" HC_abs="95.495817" PMx_abs="34.624766" NOx_abs="655.036962" fuel_abs="133.858639"/>
    </tripinfo>
    <tripinfo id="259" depart="129.50" departLane="2/10to1/10_0" departPos="4.10" departSpeed="0.00" departDelay="0.00" arrival="387.50" arrivalLane="4/2to4/1_0" arrivalPos="90.50" arrivalSpeed="13.90" duration="258.00" routeLength="1172.40" waitSteps="1405" rerouteNo="0" devices="vehroute_259 tripinfo_259 emissions_259" vType="HumanStandard" vaporized="">
        <emissions CO_abs="3299.548817" CO2_abs="344323.071723" HC_abs="101.235225" PMx_abs="35.077819" NOx_abs="668.750448" fuel_abs="137.276376"/>
    </tripinfo>
    <tripinfo id="330" depart="165.00" departLane="4/10to4/9_0" departPos="4.10" departSpeed="0.00" departDelay="0.00" arrival="389.00" arrivalLane="7/1to8/1_0" arrivalPos="90.50" arrivalSpeed="7.43" duration="224.00" routeLength="1172.40" waitSteps="1088" rerouteNo="0" devices="vehroute_330 tripinfo_330 emissions_330" vType="HumanStandard" vaporized="">
        <emissions CO_abs="2836.012084" CO2_abs="324824.929957" HC_abs="92.137085" PMx_abs="31.950335" NOx_abs="622.121963" fuel_abs="129.502778"/>
    </tripinfo>
    <tripinfo id="346" depart="173.00" departLane="1/10to1/9_0" departPos="4.10" departSpeed="0.00" departDelay="0.00" arrival="393.80" arrivalLane="5/2to5/1_0" arrivalPos="90.50" arrivalSpeed="13.90" duration="220.80" routeLength="1172.40" waitSteps="1067" rerouteNo="0" devices="vehroute_346 tripinfo_346 emissions_346" vType="HumanStandard" vaporized="">
        <emissions CO_abs="3026.409257" CO2_abs="327799.354552" HC_abs="92.615234" PMx_abs="33.471030" NOx_abs="637.931844" fuel_abs="130.688631"/>
    </tripinfo>
    <tripinfo id="265" depart="132.50" departLane="3/8to3/9_0" departPos="4.10" departSpeed="0.00" departDelay="0.00" arrival="396.20" arrivalLane="8/1to8/0_0" arrivalPos="95.25" arrivalSpeed="13.90" duration="263.70" routeLength="1358.15" waitSteps="1256" rerouteNo="0" devices="vehroute_265 tripinfo_265 emissions_265" vType="HumanStandard" vaporized="">
        <emissions CO_abs="3893.059714" CO2_abs="390090.171455" HC_abs="110.945295" PMx_abs="42.048828" NOx_abs="774.670748" fuel_abs="155.523024"/>
    </tripinfo>
    <tripinfo id="219" depart="109.50" departLane="10/9to10/10_0" departPos="4.10" departSpeed="0.00" departDelay="0.00" arrival="407.80" arrivalLane="4/1to4/2_0" arrivalPos="90.50" arrivalSpeed="6.18" duration="298.30" routeLength="1534.40" waitSteps="1419" rerouteNo="0" devices="vehroute_219 tripinfo_219 emissions_219" vType="HumanStandard" vaporized="">
        <emissions CO_abs="4009.845307" CO2_abs="424839.021259" HC_abs="118.053920" PMx_abs="44.773456" NOx_abs="836.265163" fuel_abs="169.376874"/>
    </tripinfo>
    <tripinfo id="423" depart="211.50" departLane="7/11to7/10_0" departPos="4.10" departSpeed="0.00" departDelay="0.00" arrival="407.80" arrivalLane="8/1to9/1_0" arrivalPos="90.50" arrivalSpeed="6.18" duration="196.30" routeLength="1086.65" waitSteps="861" rerouteNo="0" devices="vehroute_423 tripinfo_423 emissions_423" vType="HumanStandard" vaporized="">